# vtk DataFile Version 3.0
Scalar Field Data
ASCII
DATASET STRUCTURED_POINTS
DIMENSIONS 55 55 1
ORIGIN 0 0 0
SPACING 0.0185185 0.0185185 1
POINT_DATA 3025
SCALARS scalars double
LOOKUP_TABLE default
0
0
0
0
0
0
0
0
0
0
0
0
0
0
0
0
0
0
0
0
0
0
0
0
0
0
0
0
0
0
0
0
0
0
0
0
0
0
0
0
0
0
0
0
0
0
0
0
0
0
0
0
0
0
0
0
0.013464
0.0267461
0.0396669
0.0520519
0.0637336
0.0745543
0.0843679
0.0930417
0.100459
0.106518
0.111139
0.114259
0.115835
0.115846
0.114292
0.111194
0.106594
0.100554
0.0931561
0.0844997
0.0747018
0.063895
0.0522252
0.0398501
0.0269369
0.0136602
0.000199228
-0.013264
-0.0265475
-0.0394719
-0.0518624
-0.0635516
-0.0743815
-0.0842057
-0.0928913
-0.100321
-0.106394
-0.111028
-0.114161
-0.11575
-0.115774
-0.11423
-0.111142
-0.106549
-0.100513
-0.0931164
-0.0844576
-0.0746534
-0.0638357
-0.05215
-0.0397534
-0.0268128
-0.0135021
0
0
0.0267461
0.0531309
0.078798
0.103401
0.126606
0.148101
0.167596
0.184827
0.19956
0.211598
0.220777
0.226974
0.230104
0.230126
0.227039
0.220886
0.211748
0.19975
0.185054
0.167858
0.148394
0.126927
0.103745
0.0791618
0.0535099
0.0271358
0.000395765
-0.0263488
-0.0527364
-0.0784105
-0.103024
-0.126245
-0.147758
-0.167274
-0.184528
-0.199287
-0.211351
-0.220557
-0.226781
-0.229937
-0.229983
-0.226918
-0.220782
-0.211658
-0.199669
-0.184975
-0.167774
-0.148298
-0.126809
-0.103595
-0.0789699
-0.0532635
-0.0268217
0
0
0.0396669
0.078798
0.116865
0.153352
0.187768
0.219648
0.24856
0.274114
0.295966
0.313819
0.327432
0.336623
0.341265
0.341298
0.33672
0.327593
0.314042
0.296247
0.274451
0.248948
0.220082
0.188244
0.153863
0.117404
0.07936
0.0402448
0.000586955
-0.0390776
-0.0782128
-0.11629
-0.152794
-0.187232
-0.219139
-0.248082
-0.273671
-0.29556
-0.313452
-0.327106
-0.336336
-0.341017
-0.341086
-0.33654
-0.32744
-0.313908
-0.296127
-0.274334
-0.248824
-0.21994
-0.188069
-0.153641
-0.117119
-0.0789945
-0.0397791
0
0
0.0520519
0.103401
0.153352
0.201232
0.246394
0.288227
0.326166
0.359699
0.388373
0.4118
0.429664
0.441724
0.447816
0.447859
0.441852
0.429876
0.412093
0.388743
0.360142
0.326676
0.288797
0.247018
0.201902
0.15406
0.104138
0.0528101
0.000770217
-0.0512785
-0.102633
-0.152598
-0.2005
-0.24569
-0.287559
-0.325539
-0.359118
-0.387841
-0.411319
-0.429236
-0.441348
-0.447491
-0.44758
-0.441615
-0.429674
-0.411918
-0.388584
-0.359988
-0.326513
-0.28861
-0.246789
-0.201612
-0.153687
-0.103658
-0.052199
0
0
0.0637336
0.126606
0.187768
0.246394
0.301691
0.352912
0.399366
0.440425
0.475534
0.504218
0.526092
0.540858
0.548317
0.54837
0.541014
0.526351
0.504576
0.475986
0.440966
0.39999
0.35361
0.302455
0.247214
0.188635
0.127509
0.0646621
0.000943073
-0.0627867
-0.125666
-0.186845
-0.245497
-0.30083
-0.352094
-0.398598
-0.439713
-0.474882
-0.50363
-0.525567
-0.540397
-0.547919
-0.548029
-0.540724
-0.526104
-0.504362
-0.475792
-0.440778
-0.399791
-0.353381
-0.302174
-0.246858
-0.188178
-0.126922
-0.0639138
0
0
0.0745543
0.148101
0.219648
0.288227
0.352912
0.41283
0.467171
0.5152
0.55627
0.589825
0.615412
0.632685
0.641411
0.641473
0.632868
0.615715
0.590244
0.5568
0.515834
0.4679
0.413647
0.353806
0.289187
0.220662
0.149158
0.0756404
0.00110319
-0.0734467
-0.147002
-0.218568
-0.287178
-0.351905
-0.411873
-0.466273
-0.514368
-0.555508
-0.589136
-0.614799
-0.632146
-0.640945
-0.641073
-0.632529
-0.615426
-0.589993
-0.556573
-0.515614
-0.467668
-0.413379
-0.353478
-0.28877
-0.220127
-0.148471
-0.0747651
0
0
0.0843679
0.167596
0.24856
0.326166
0.399366
0.467171
0.528664
0.583016
0.629492
0.667463
0.696418
0.715965
0.72584
0.725909
0.716173
0.696761
0.667937
0.630091
0.583733
0.52949
0.468095
0.400377
0.327252
0.249708
0.168791
0.085597
0.0012484
-0.0831144
-0.166351
-0.247338
-0.324979
-0.398226
-0.466088
-0.527648
-0.582074
-0.628629
-0.666684
-0.695724
-0.715356
-0.725312
-0.725458
-0.715789
-0.696434
-0.667654
-0.629834
-0.583484
-0.529227
-0.467792
-0.400006
-0.326781
-0.249102
-0.168014
-0.0846064
0
0
0.0930417
0.184827
0.274114
0.359699
0.440425
0.5152
0.583016
0.642956
0.69421
0.736085
0.768017
0.789573
0.800463
0.80054
0.789802
0.768395
0.736608
0.69487
0.643746
0.583927
0.51622
0.44154
0.360897
0.27538
0.186145
0.0943971
0.00137675
-0.0916594
-0.183454
-0.272767
-0.35839
-0.439167
-0.514006
-0.581895
-0.641916
-0.693258
-0.735226
-0.767251
-0.788901
-0.799881
-0.800041
-0.789379
-0.768034
-0.736295
-0.694587
-0.643472
-0.583636
-0.515885
-0.44113
-0.360377
-0.274712
-0.185287
-0.0933048
0
0
0.100459
0.19956
0.295966
0.388373
0.475534
0.55627
0.629492
0.69421
0.749549
0.794763
0.82924
0.852515
0.864273
0.864355
0.852762
0.829648
0.795327
0.750262
0.695063
0.630475
0.55737
0.476738
0.389666
0.297332
0.200984
0.101922
0.0014865
-0.0989661
-0.198078
-0.29451
-0.386959
-0.474176
-0.554981
-0.628281
-0.693087
-0.748522
-0.793835
-0.828413
-0.851789
-0.863644
-0.863817
-0.852304
-0.829259
-0.79499
-0.749957
-0.694767
-0.630161
-0.557009
-0.476295
-0.389105
-0.296611
-0.200058
-0.100743
0
0
0.106518
0.211598
0.313819
0.4118
0.504218
0.589825
0.667463
0.736085
0.794763
0.842704
0.879261
0.903939
0.916407
0.916494
0.904201
0.879693
0.843302
0.795519
0.73699
0.668506
0.590992
0.505495
0.413171
0.315268
0.213107
0.10807
0.00157617
-0.104936
-0.210026
-0.312276
-0.410301
-0.502779
-0.588458
-0.66618
-0.734895
-0.793673
-0.84172
-0.878384
-0.90317
-0.91574
-0.915924
-0.903716
-0.879281
-0.842944
-0.795195
-0.736676
-0.668173
-0.590609
-0.505026
-0.412576
-0.314503
-0.212126
-0.10682
0
0
0.111139
0.220777
0.327432
0.429664
0.526092
0.615412
0.696418
0.768017
0.82924
0.879261
0.917403
0.943153
0.956161
0.956252
0.943426
0.917855
0.879885
0.830029
0.768961
0.697506
0.616629
0.527424
0.431095
0.328944
0.222352
0.112758
0.00164455
-0.109488
-0.219137
-0.325822
-0.4281
-0.524589
-0.613985
-0.695079
-0.766775
-0.828103
-0.878234
-0.916489
-0.94235
-0.955465
-0.955657
-0.94292
-0.917424
-0.879511
-0.829691
-0.768633
-0.697159
-0.616229
-0.526934
-0.430474
-0.328146
-0.221328
-0.111453
0
0
0.114259
0.226974
0.336623
0.441724
0.540858
0.632685
0.715965
0.789573
0.852515
0.903939
0.943153
0.969625
0.982998
0.983092
0.969906
0.943617
0.904581
0.853326
0.790544
0.717083
0.633936
0.542227
0.443195
0.338177
0.228593
0.115923
0.00169072
-0.112561
-0.225288
-0.334967
-0.440116
-0.539313
-0.631218
-0.714588
-0.788297
-0.851346
-0.902884
-0.942213
-0.968799
-0.982283
-0.98248
-0.969386
-0.943174
-0.904197
-0.852979
-0.790207
-0.716726
-0.633526
-0.541724
-0.442556
-0.337357
-0.22754
-0.114582
0
0
0.115835
0.230104
0.341265
0.447816
0.548317
0.641411
0.72584
0.800463
0.864273
0.916407
0.956161
0.982998
0.996556
0.996651
0.983283
0.956632
0.917057
0.865095
0.801447
0.726973
0.64268
0.549706
0.449307
0.342841
0.231745
0.117522
0.00171404
-0.114114
-0.228395
-0.339587
-0.446186
-0.546752
-0.639924
-0.724444
-0.799169
-0.863088
-0.915337
-0.955208
-0.982161
-0.995831
-0.996031
-0.982756
-0.956183
-0.916668
-0.864743
-0.801106
-0.726612
-0.642263
-0.549195
-0.44866
-0.34201
-0.230678
-0.116162
0
0
0.115846
0.230126
0.341298
0.447859
0.54837
0.641473
0.725909
0.80054
0.864355
0.916494
0.956252
0.983092
0.996651
0.996746
0.983377
0.956723
0.917145
0.865178
0.801524
0.727043
0.642741
0.549758
0.44935
0.342874
0.231768
0.117533
0.00171421
-0.114124
-0.228417
-0.33962
-0.446229
-0.546804
-0.639985
-0.724514
-0.799246
-0.863171
-0.915424
-0.955299
-0.982255
-0.995926
-0.996126
-0.98285
-0.956274
-0.916756
-0.864826
-0.801182
-0.726681
-0.642325
-0.549248
-0.448703
-0.342042
-0.2307
-0.116173
0
0
0.114292
0.227039
0.33672
0.441852
0.541014
0.632868
0.716173
0.789802
0.852762
0.904201
0.943426
0.969906
0.983283
0.983377
0.970187
0.94389
0.904843
0.853573
0.790773
0.717291
0.63412
0.542384
0.443323
0.338275
0.228659
0.115957
0.00169122
-0.112594
-0.225353
-0.335064
-0.440244
-0.53947
-0.631401
-0.714795
-0.788525
-0.851593
-0.903146
-0.942486
-0.96908
-0.982568
-0.982765
-0.969666
-0.943447
-0.904459
-0.853226
-0.790436
-0.716934
-0.633709
-0.541881
-0.442685
-0.337454
-0.227606
-0.114615
0
0
0.111194
0.220886
0.327593
0.429876
0.526351
0.615715
0.696761
0.768395
0.829648
0.879693
0.917855
0.943617
0.956632
0.956723
0.94389
0.918307
0.880318
0.830438
0.76934
0.697849
0.616933
0.527683
0.431307
0.329106
0.222461
0.112814
0.00164539
-0.109542
-0.219245
-0.325983
-0.428311
-0.524848
-0.614287
-0.695421
-0.767153
-0.828511
-0.878666
-0.91694
-0.942814
-0.955936
-0.956128
-0.943384
-0.917876
-0.879944
-0.8301
-0.769012
-0.697502
-0.616533
-0.527193
-0.430686
-0.328308
-0.221437
-0.111508
0
0
0.106594
0.211748
0.314042
0.412093
0.504576
0.590244
0.667937
0.736608
0.795327
0.843302
0.879885
0.904581
0.917057
0.917145
0.904843
0.880318
0.843901
0.796084
0.737513
0.668981
0.591411
0.505854
0.413465
0.315491
0.213258
0.108147
0.00157734
-0.10501
-0.210176
-0.312497
-0.410593
-0.503136
-0.588875
-0.666653
-0.735417
-0.794237
-0.842318
-0.879008
-0.903811
-0.91639
-0.916574
-0.904358
-0.879905
-0.843543
-0.79576
-0.737199
-0.668648
-0.591028
-0.505384
-0.412869
-0.314726
-0.212276
-0.106895
0
0
0.100554
0.19975
0.296247
0.388743
0.475986
0.5568
0.630091
0.69487
0.750262
0.795519
0.830029
0.853326
0.865095
0.865178
0.853573
0.830438
0.796084
0.750977
0.695725
0.631075
0.557901
0.477191
0.390037
0.297615
0.201175
0.102019
0.00148797
-0.0990602
-0.198267
-0.294791
-0.387328
-0.474627
-0.555509
-0.628879
-0.693747
-0.749234
-0.79459
-0.829202
-0.8526
-0.864466
-0.86464
-0.853116
-0.830048
-0.795746
-0.750671
-0.695428
-0.630761
-0.557539
-0.476748
-0.389475
-0.296894
-0.200248
-0.100838
0
0
0.0931561
0.185054
0.274451
0.360142
0.440966
0.515834
0.583733
0.643746
0.695063
0.73699
0.768961
0.790544
0.801447
0.801524
0.790773
0.76934
0.737513
0.695725
0.644538
0.584645
0.516854
0.442083
0.361341
0.275719
0.186374
0.0945133
0.00137851
-0.091772
-0.183679
-0.273102
-0.358831
-0.439707
-0.514638
-0.58261
-0.642705
-0.69411
-0.73613
-0.768195
-0.789871
-0.800864
-0.801025
-0.790349
-0.768979
-0.7372
-0.695441
-0.644263
-0.584353
-0.516519
-0.441672
-0.36082
-0.27505
-0.185515
-0.0934194
0
0
0.0844997
0.167858
0.248948
0.326676
0.39999
0.4679
0.52949
0.583927
0.630475
0.668506
0.697506
0.717083
0.726973
0.727043
0.717291
0.697849
0.668981
0.631075
0.584645
0.530317
0.468826
0.401003
0.327763
0.250098
0.169055
0.0857307
0.00125043
-0.0832441
-0.166611
-0.247724
-0.325486
-0.398848
-0.466816
-0.528472
-0.582983
-0.629611
-0.667725
-0.696811
-0.716473
-0.726445
-0.72659
-0.716906
-0.697522
-0.668696
-0.630818
-0.584395
-0.530053
-0.468522
-0.40063
-0.327291
-0.249491
-0.168276
-0.0847385
0
0
0.0747018
0.148394
0.220082
0.288797
0.35361
0.413647
0.468095
0.51622
0.55737
0.590992
0.616629
0.633936
0.64268
0.642741
0.63412
0.616933
0.591411
0.557901
0.516854
0.468826
0.414465
0.354506
0.289759
0.221099
0.149453
0.0757901
0.00110547
-0.0735918
-0.147292
-0.219
-0.287746
-0.352601
-0.412688
-0.467195
-0.515385
-0.556606
-0.590302
-0.616014
-0.633397
-0.642212
-0.642341
-0.63378
-0.616643
-0.59116
-0.557674
-0.516634
-0.468592
-0.414196
-0.354177
-0.289341
-0.220562
-0.148764
-0.074913
0
0
0.063895
0.126927
0.188244
0.247018
0.302455
0.353806
0.400377
0.44154
0.476738
0.505495
0.527424
0.542227
0.549706
0.549758
0.542384
0.527683
0.505854
0.477191
0.442083
0.401003
0.354506
0.303221
0.24784
0.189113
0.127832
0.0648259
0.000945568
-0.0629455
-0.125984
-0.187318
-0.246119
-0.301591
-0.352986
-0.399607
-0.440826
-0.476084
-0.504905
-0.526898
-0.541765
-0.549306
-0.549416
-0.542093
-0.527436
-0.505639
-0.476997
-0.441894
-0.400803
-0.354276
-0.302939
-0.247483
-0.188654
-0.127243
-0.0640756
0
0
0.0522252
0.103745
0.153863
0.201902
0.247214
0.289187
0.327252
0.360897
0.389666
0.413171
0.431095
0.443195
0.449307
0.44935
0.443323
0.431307
0.413465
0.390037
0.361341
0.327763
0.289759
0.24784
0.202575
0.154573
0.104485
0.0529861
0.000772903
-0.0514491
-0.102974
-0.153106
-0.201167
-0.246508
-0.288516
-0.326623
-0.360313
-0.389132
-0.412689
-0.430665
-0.442817
-0.44898
-0.44907
-0.443085
-0.431104
-0.413289
-0.389878
-0.361186
-0.3276
-0.289571
-0.24761
-0.202283
-0.154198
-0.104003
-0.0523728
0
0
0.0398501
0.0791618
0.117404
0.15406
0.188635
0.220662
0.249708
0.27538
0.297332
0.315268
0.328944
0.338177
0.342841
0.342874
0.338275
0.329106
0.315491
0.297615
0.275719
0.250098
0.221099
0.189113
0.154573
0.117946
0.0797265
0.0404307
0.000589802
-0.0392579
-0.0785738
-0.116827
-0.153499
-0.188096
-0.22015
-0.249227
-0.274935
-0.296924
-0.314899
-0.328616
-0.337889
-0.342591
-0.34266
-0.338093
-0.328951
-0.315357
-0.297494
-0.275601
-0.249973
-0.220955
-0.188937
-0.154351
-0.11766
-0.0793591
-0.0399627
0
0
0.0269369
0.0535099
0.07936
0.104138
0.127509
0.149158
0.168791
0.186145
0.200984
0.213107
0.222352
0.228593
0.231745
0.231768
0.228659
0.222461
0.213258
0.201175
0.186374
0.169055
0.149453
0.127832
0.104485
0.0797265
0.0538917
0.0273294
0.00039874
-0.0265365
-0.0531123
-0.0789696
-0.103759
-0.127145
-0.148812
-0.168467
-0.185844
-0.200708
-0.212858
-0.22213
-0.228398
-0.231577
-0.231623
-0.228536
-0.222357
-0.213168
-0.201093
-0.186294
-0.168971
-0.149356
-0.127713
-0.104334
-0.079533
-0.0536432
-0.027013
0
0
0.0136602
0.0271358
0.0402448
0.0528101
0.0646621
0.0756404
0.085597
0.0943971
0.101922
0.10807
0.112758
0.115923
0.117522
0.117533
0.115957
0.112814
0.108147
0.102019
0.0945133
0.0857307
0.0757901
0.0648259
0.0529861
0.0404307
0.0273294
0.0138593
0.000202298
-0.013457
-0.0269341
-0.0400467
-0.0526177
-0.0644772
-0.0754648
-0.0854321
-0.0942442
-0.101782
-0.107944
-0.112646
-0.115824
-0.117436
-0.11746
-0.115894
-0.112761
-0.108101
-0.101977
-0.0944726
-0.0856877
-0.0757406
-0.0647653
-0.0529094
-0.0403324
-0.0272033
-0.0136987
0
0
0.000199228
0.000395765
0.000586955
0.000770217
0.000943073
0.00110319
0.0012484
0.00137675
0.0014865
0.00157617
0.00164455
0.00169072
0.00171404
0.00171421
0.00169122
0.00164539
0.00157734
0.00148797
0.00137851
0.00125043
0.00110547
0.000945568
0.000772903
0.000589802
0.00039874
0.000202298
3.13223e-06
-0.000196067
-0.000392607
-0.000583833
-0.000767158
-0.000940107
-0.00110034
-0.00124569
-0.0013742
-0.00148412
-0.00157397
-0.00164253
-0.00168888
-0.00171238
-0.00171272
-0.00168988
-0.00164418
-0.00157622
-0.00148692
-0.00137748
-0.00124938
-0.00110433
-0.000944292
-0.000771418
-0.000588034
-0.000396608
-0.000199714
0
0
-0.013264
-0.0263488
-0.0390776
-0.0512785
-0.0627867
-0.0734467
-0.0831144
-0.0916594
-0.0989661
-0.104936
-0.109488
-0.112561
-0.114114
-0.114124
-0.112594
-0.109542
-0.10501
-0.0990602
-0.091772
-0.0832441
-0.0735918
-0.0629455
-0.0514491
-0.0392579
-0.0265365
-0.013457
-0.000196067
0.0130671
0.0261533
0.0388857
0.0510921
0.0626077
0.0732767
0.082955
0.0915116
0.0988308
0.104814
0.109379
0.112466
0.114031
0.114054
0.112534
0.109491
0.104966
0.0990204
0.0917334
0.0832032
0.0735446
0.0628876
0.0513754
0.039163
0.0264146
0.0133016
0
0
-0.0265475
-0.0527364
-0.0782128
-0.102633
-0.125666
-0.147002
-0.166351
-0.183454
-0.198078
-0.210026
-0.219137
-0.225288
-0.228395
-0.228417
-0.225353
-0.219245
-0.210176
-0.198267
-0.183679
-0.166611
-0.147292
-0.125984
-0.102974
-0.0785738
-0.0531123
-0.0269341
-0.000392607
0.0261533
0.052345
0.0778285
0.102259
0.125307
0.146661
0.166032
0.183158
0.197807
0.209782
0.21892
0.225097
0.22823
0.228276
0.225233
0.219143
0.210087
0.198186
0.183602
0.166529
0.147197
0.125868
0.102826
0.0783837
0.0528681
0.0266227
0
0
-0.0394719
-0.0784105
-0.11629
-0.152598
-0.186845
-0.218568
-0.247338
-0.272767
-0.29451
-0.312276
-0.325822
-0.334967
-0.339587
-0.33962
-0.335064
-0.325983
-0.312497
-0.294791
-0.273102
-0.247724
-0.219
-0.187318
-0.153106
-0.116827
-0.0789696
-0.0400467
-0.000583833
0.0388857
0.0778285
0.115718
0.152043
0.186312
0.218062
0.246863
0.272326
0.294107
0.311912
0.325498
0.334683
0.339341
0.339409
0.334885
0.32583
0.312365
0.294671
0.272986
0.247601
0.218859
0.187145
0.152886
0.116544
0.0786063
0.0395836
0
0
-0.0518624
-0.103024
-0.152794
-0.2005
-0.245497
-0.287178
-0.324979
-0.35839
-0.386959
-0.410301
-0.4281
-0.440116
-0.446186
-0.446229
-0.440244
-0.428311
-0.410593
-0.387328
-0.358831
-0.325486
-0.287746
-0.246119
-0.201167
-0.153499
-0.103759
-0.0526177
-0.000767158
0.0510921
0.102259
0.152043
0.199771
0.244797
0.286513
0.324355
0.357811
0.38643
0.409823
0.427674
0.439742
0.445862
0.445952
0.440008
0.428111
0.410419
0.387171
0.358678
0.325325
0.28756
0.245891
0.200878
0.153128
0.103281
0.0520091
0
0
-0.0635516
-0.126245
-0.187232
-0.24569
-0.30083
-0.351905
-0.398226
-0.439167
-0.474176
-0.502779
-0.524589
-0.539313
-0.546752
-0.546804
-0.53947
-0.524848
-0.503136
-0.474627
-0.439707
-0.398848
-0.352601
-0.301591
-0.246508
-0.188096
-0.127145
-0.0644772
-0.000940107
0.0626077
0.125307
0.186312
0.244797
0.299971
0.351089
0.397461
0.438458
0.473526
0.502192
0.524067
0.538855
0.546355
0.546464
0.539181
0.524602
0.502923
0.474434
0.43952
0.39865
0.352373
0.301312
0.246154
0.187641
0.12656
0.0637314
0
0
-0.0743815
-0.147758
-0.219139
-0.287559
-0.352094
-0.411873
-0.466088
-0.514006
-0.554981
-0.588458
-0.613985
-0.631218
-0.639924
-0.639985
-0.631401
-0.614287
-0.588875
-0.555509
-0.514638
-0.466816
-0.412688
-0.352986
-0.288516
-0.22015
-0.148812
-0.0754648
-0.00110034
0.0732767
0.146661
0.218062
0.286513
0.351089
0.410919
0.465192
0.513176
0.55422
0.587771
0.613374
0.630682
0.63946
0.639588
0.631063
0.614
0.588626
0.555283
0.514419
0.466584
0.412421
0.352659
0.288101
0.219617
0.148127
0.0745919
0
0
-0.0842057
-0.167274
-0.248082
-0.325539
-0.398598
-0.466273
-0.527648
-0.581895
-0.628281
-0.66618
-0.695079
-0.714588
-0.724444
-0.724514
-0.714795
-0.695421
-0.666653
-0.628879
-0.58261
-0.528472
-0.467195
-0.399607
-0.326623
-0.249227
-0.168467
-0.0854321
-0.00124569
0.082955
0.166032
0.246863
0.324355
0.397461
0.465192
0.526634
0.580955
0.627421
0.665403
0.694387
0.713981
0.723918
0.724063
0.714413
0.695096
0.666371
0.628624
0.582363
0.52821
0.466893
0.399237
0.326153
0.248624
0.167691
0.0844439
0
0
-0.0928913
-0.184528
-0.273671
-0.359118
-0.439713
-0.514368
-0.582074
-0.641916
-0.693087
-0.734895
-0.766775
-0.788297
-0.799169
-0.799246
-0.788525
-0.767153
-0.735417
-0.693747
-0.642705
-0.582983
-0.515385
-0.440826
-0.360313
-0.274935
-0.185844
-0.0942442
-0.0013742
0.0915116
0.183158
0.272326
0.357811
0.438458
0.513176
0.580955
0.640879
0.692138
0.734038
0.766012
0.787626
0.798589
0.798749
0.788103
0.766794
0.735106
0.693465
0.642432
0.582693
0.515052
0.440418
0.359795
0.274269
0.184988
0.0931541
0
0
-0.100321
-0.199287
-0.29556
-0.387841
-0.474882
-0.555508
-0.628629
-0.693258
-0.748522
-0.793673
-0.828103
-0.851346
-0.863088
-0.863171
-0.851593
-0.828511
-0.794237
-0.749234
-0.69411
-0.629611
-0.556606
-0.476084
-0.389132
-0.296924
-0.200708
-0.101782
-0.00148412
0.0988308
0.197807
0.294107
0.38643
0.473526
0.55422
0.627421
0.692138
0.747497
0.792748
0.827279
0.850622
0.862461
0.862634
0.851137
0.828123
0.793901
0.74893
0.693815
0.629298
0.556247
0.475643
0.388572
0.296205
0.199784
0.100605
0
0
-0.106394
-0.211351
-0.313452
-0.411319
-0.50363
-0.589136
-0.666684
-0.735226
-0.793835
-0.84172
-0.878234
-0.902884
-0.915337
-0.915424
-0.903146
-0.878666
-0.842318
-0.79459
-0.73613
-0.667725
-0.590302
-0.504905
-0.412689
-0.314899
-0.212858
-0.107944
-0.00157397
0.104814
0.209782
0.311912
0.409823
0.502192
0.587771
0.665403
0.734038
0.792748
0.840738
0.87736
0.902116
0.914672
0.914856
0.902662
0.878255
0.841961
0.794268
0.735817
0.667394
0.58992
0.504437
0.412095
0.314137
0.211878
0.106695
0
0
-0.111028
-0.220557
-0.327106
-0.429236
-0.525567
-0.614799
-0.695724
-0.767251
-0.828413
-0.878384
-0.916489
-0.942213
-0.955208
-0.955299
-0.942486
-0.91694
-0.879008
-0.829202
-0.768195
-0.696811
-0.616014
-0.526898
-0.430665
-0.328616
-0.22213
-0.112646
-0.00164253
0.109379
0.21892
0.325498
0.427674
0.524067
0.613374
0.694387
0.766012
0.827279
0.87736
0.915577
0.941412
0.954514
0.954706
0.941981
0.916511
0.878636
0.828865
0.767868
0.696465
0.615616
0.52641
0.430046
0.32782
0.221108
0.111343
0
0
-0.114161
-0.226781
-0.336336
-0.441348
-0.540397
-0.632146
-0.715356
-0.788901
-0.851789
-0.90317
-0.94235
-0.968799
-0.982161
-0.982255
-0.96908
-0.942814
-0.903811
-0.8526
-0.789871
-0.716473
-0.633397
-0.541765
-0.442817
-0.337889
-0.228398
-0.115824
-0.00168888
0.112466
0.225097
0.334683
0.439742
0.538855
0.630682
0.713981
0.787626
0.850622
0.902116
0.941412
0.967976
0.981448
0.981645
0.968562
0.942372
0.903429
0.852254
0.789535
0.716117
0.632987
0.541264
0.44218
0.33707
0.227347
0.114484
0
0
-0.11575
-0.229937
-0.341017
-0.447491
-0.547919
-0.640945
-0.725312
-0.799881
-0.863644
-0.91574
-0.955465
-0.982283
-0.995831
-0.995926
-0.982568
-0.955936
-0.91639
-0.864466
-0.800864
-0.726445
-0.642212
-0.549306
-0.44898
-0.342591
-0.231577
-0.117436
-0.00171238
0.114031
0.22823
0.339341
0.445862
0.546355
0.63946
0.723918
0.798589
0.862461
0.914672
0.954514
0.981448
0.995108
0.995307
0.982042
0.955488
0.916003
0.864115
0.800524
0.726084
0.641797
0.548797
0.448335
0.341762
0.230511
0.116078
0
0
-0.115774
-0.229983
-0.341086
-0.44758
-0.548029
-0.641073
-0.725458
-0.800041
-0.863817
-0.915924
-0.955657
-0.98248
-0.996031
-0.996126
-0.982765
-0.956128
-0.916574
-0.86464
-0.801025
-0.72659
-0.642341
-0.549416
-0.44907
-0.34266
-0.231623
-0.11746
-0.00171272
0.114054
0.228276
0.339409
0.445952
0.546464
0.639588
0.724063
0.798749
0.862634
0.914856
0.954706
0.981645
0.995307
0.995507
0.982239
0.95568
0.916187
0.864289
0.800685
0.72623
0.641926
0.548907
0.448425
0.34183
0.230557
0.116101
0
0
-0.11423
-0.226918
-0.33654
-0.441615
-0.540724
-0.632529
-0.715789
-0.789379
-0.852304
-0.903716
-0.94292
-0.969386
-0.982756
-0.98285
-0.969666
-0.943384
-0.904358
-0.853116
-0.790349
-0.716906
-0.63378
-0.542093
-0.443085
-0.338093
-0.228536
-0.115894
-0.00168988
0.112534
0.225233
0.334885
0.440008
0.539181
0.631063
0.714413
0.788103
0.851137
0.902662
0.941981
0.968562
0.982042
0.982239
0.969148
0.942943
0.903976
0.85277
0.790013
0.716551
0.633371
0.541591
0.442448
0.337274
0.227484
0.114554
0
0
-0.111142
-0.220782
-0.32744
-0.429674
-0.526104
-0.615426
-0.696434
-0.768034
-0.829259
-0.879281
-0.917424
-0.943174
-0.956183
-0.956274
-0.943447
-0.917876
-0.879905
-0.830048
-0.768979
-0.697522
-0.616643
-0.527436
-0.431104
-0.328951
-0.222357
-0.112761
-0.00164418
0.109491
0.219143
0.32583
0.428111
0.524602
0.614
0.695096
0.766794
0.828123
0.878255
0.916511
0.942372
0.955488
0.95568
0.942943
0.917447
0.879533
0.829712
0.768652
0.697176
0.616245
0.526947
0.430485
0.328155
0.221333
0.111456
0
0
-0.106549
-0.211658
-0.313908
-0.411918
-0.504362
-0.589993
-0.667654
-0.736295
-0.79499
-0.842944
-0.879511
-0.904197
-0.916668
-0.916756
-0.904459
-0.879944
-0.843543
-0.795746
-0.7372
-0.668696
-0.59116
-0.505639
-0.413289
-0.315357
-0.213168
-0.108101
-0.00157622
0.104966
0.210087
0.312365
0.410419
0.502923
0.588626
0.666371
0.735106
0.793901
0.841961
0.878636
0.903429
0.916003
0.916187
0.903976
0.879533
0.843186
0.795424
0.736887
0.668365
0.590778
0.505171
0.412695
0.314594
0.212187
0.10685
0
0
-0.100513
-0.199669
-0.296127
-0.388584
-0.475792
-0.556573
-0.629834
-0.694587
-0.749957
-0.795195
-0.829691
-0.852979
-0.864743
-0.864826
-0.853226
-0.8301
-0.79576
-0.750671
-0.695441
-0.630818
-0.557674
-0.476997
-0.389878
-0.297494
-0.201093
-0.101977
-0.00148692
0.0990204
0.198186
0.294671
0.387171
0.474434
0.555283
0.628624
0.693465
0.74893
0.794268
0.828865
0.852254
0.864115
0.864289
0.85277
0.829712
0.795424
0.750367
0.695146
0.630505
0.557314
0.476556
0.389318
0.296774
0.200167
0.100798
0
0
-0.0931164
-0.184975
-0.274334
-0.359988
-0.440778
-0.515614
-0.583484
-0.643472
-0.694767
-0.736676
-0.768633
-0.790207
-0.801106
-0.801182
-0.790436
-0.769012
-0.737199
-0.695428
-0.644263
-0.584395
-0.516634
-0.441894
-0.361186
-0.275601
-0.186294
-0.0944726
-0.00137748
0.0917334
0.183602
0.272986
0.358678
0.43952
0.514419
0.582363
0.642432
0.693815
0.735817
0.767868
0.789535
0.800524
0.800685
0.790013
0.768652
0.736887
0.695146
0.64399
0.584106
0.5163
0.441485
0.360668
0.274934
0.185437
0.09338
0
0
-0.0844576
-0.167774
-0.248824
-0.326513
-0.399791
-0.467668
-0.529227
-0.583636
-0.630161
-0.668173
-0.697159
-0.716726
-0.726612
-0.726681
-0.716934
-0.697502
-0.668648
-0.630761
-0.584353
-0.530053
-0.468592
-0.400803
-0.3276
-0.249973
-0.168971
-0.0856877
-0.00124938
0.0832032
0.166529
0.247601
0.325325
0.39865
0.466584
0.52821
0.582693
0.629298
0.667394
0.696465
0.716117
0.726084
0.72623
0.716551
0.697176
0.668365
0.630505
0.584106
0.529791
0.46829
0.400432
0.32713
0.249368
0.168193
0.0846968
0
0
-0.0746534
-0.148298
-0.21994
-0.28861
-0.353381
-0.413379
-0.467792
-0.515885
-0.557009
-0.590609
-0.616229
-0.633526
-0.642263
-0.642325
-0.633709
-0.616533
-0.591028
-0.557539
-0.516519
-0.468522
-0.414196
-0.354276
-0.289571
-0.220955
-0.149356
-0.0757406
-0.00110433
0.0735446
0.147197
0.218859
0.28756
0.352373
0.412421
0.466893
0.515052
0.556247
0.58992
0.615616
0.632987
0.641797
0.641926
0.633371
0.616245
0.590778
0.557314
0.5163
0.46829
0.413929
0.353948
0.289155
0.22042
0.148669
0.0748649
0
0
-0.0638357
-0.126809
-0.188069
-0.246789
-0.302174
-0.353478
-0.400006
-0.44113
-0.476295
-0.505026
-0.526934
-0.541724
-0.549195
-0.549248
-0.541881
-0.527193
-0.505384
-0.476748
-0.441672
-0.40063
-0.354177
-0.302939
-0.24761
-0.188937
-0.127713
-0.0647653
-0.000944292
0.0628876
0.125868
0.187145
0.245891
0.301312
0.352659
0.399237
0.440418
0.475643
0.504437
0.52641
0.541264
0.548797
0.548907
0.541591
0.526947
0.505171
0.476556
0.441485
0.400432
0.353948
0.302659
0.247255
0.18848
0.127126
0.0640166
0
0
-0.05215
-0.103595
-0.153641
-0.201612
-0.246858
-0.28877
-0.326781
-0.360377
-0.389105
-0.412576
-0.430474
-0.442556
-0.44866
-0.448703
-0.442685
-0.430686
-0.412869
-0.389475
-0.36082
-0.327291
-0.289341
-0.247483
-0.202283
-0.154351
-0.104334
-0.0529094
-0.000771418
0.0513754
0.102826
0.152886
0.200878
0.246154
0.288101
0.326153
0.359795
0.388572
0.412095
0.430046
0.44218
0.448335
0.448425
0.442448
0.430485
0.412695
0.389318
0.360668
0.32713
0.289155
0.247255
0.201993
0.153977
0.103855
0.0522978
0
0
-0.0397534
-0.0789699
-0.117119
-0.153687
-0.188178
-0.220127
-0.249102
-0.274712
-0.296611
-0.314503
-0.328146
-0.337357
-0.34201
-0.342042
-0.337454
-0.328308
-0.314726
-0.296894
-0.27505
-0.249491
-0.220562
-0.188654
-0.154198
-0.11766
-0.079533
-0.0403324
-0.000588034
0.039163
0.0783837
0.116544
0.153128
0.187641
0.219617
0.248624
0.274269
0.296205
0.314137
0.32782
0.33707
0.341762
0.34183
0.337274
0.328155
0.314594
0.296774
0.274934
0.249368
0.22042
0.18848
0.153977
0.117376
0.0791675
0.0398662
0
0
-0.0268128
-0.0532635
-0.0789945
-0.103658
-0.126922
-0.148471
-0.168014
-0.185287
-0.200058
-0.212126
-0.221328
-0.22754
-0.230678
-0.2307
-0.227606
-0.221437
-0.212276
-0.200248
-0.185515
-0.168276
-0.148764
-0.127243
-0.104003
-0.0793591
-0.0536432
-0.0272033
-0.000396608
0.0264146
0.0528681
0.0786063
0.103281
0.12656
0.148127
0.167691
0.184988
0.199784
0.211878
0.221108
0.227347
0.230511
0.230557
0.227484
0.221333
0.212187
0.200167
0.185437
0.168193
0.148669
0.127126
0.103855
0.0791675
0.0533968
0.026889
0
0
-0.0135021
-0.0268217
-0.0397791
-0.052199
-0.0639138
-0.0747651
-0.0846064
-0.0933048
-0.100743
-0.10682
-0.111453
-0.114582
-0.116162
-0.116173
-0.114615
-0.111508
-0.106895
-0.100838
-0.0934194
-0.0847385
-0.074913
-0.0640756
-0.0523728
-0.0399627
-0.027013
-0.0136987
-0.000199714
0.0133016
0.0266227
0.0395836
0.0520091
0.0637314
0.0745919
0.0844439
0.0931541
0.100605
0.106695
0.111343
0.114484
0.116078
0.116101
0.114554
0.111456
0.10685
0.100798
0.09338
0.0846968
0.0748649
0.0640166
0.0522978
0.0398662
0.026889
0.0135405
0
0
0
0
0
0
0
0
0
0
0
0
0
0
0
0
0
0
0
0
0
0
0
0
0
0
0
0
0
0
0
0
0
0
0
0
0
0
0
0
0
0
0
0
0
0
0
0
0
0
0
0
0
0
0
0
